
#(C) 2023 by FIZ Karlsruhe - Leibniz Institute for Information Infrastructure.  All rights reserved.
data_35218-ICSD
_database_code_ICSD 35218
_audit_creation_date 1982-12-31
_chemical_name_common 'Calcium manganate(IV)'
_chemical_formula_structural 'Ca Mn O3'
_chemical_formula_sum 'Ca1 Mn1 O3'
_chemical_name_structure_type Perovskite#GdFeO3
_exptl_crystal_density_diffrn 4.59
_citation_title

;
Structure Determination of Ca Mn O3 and Ca Mn O2.5 by X-Ray and Neutron
Methods
;
loop_
_citation_id
_citation_journal_full
_citation_year
_citation_journal_volume
_citation_page_first
_citation_page_last
_citation_journal_id_ASTM
primary 'Journal of Solid State Chemistry' 1982 45 71 79 JSSCBI
loop_
_citation_author_citation_id
_citation_author_name
primary 'Poeppelmeier, K.R.'
primary 'Leonowicz, M.E.'
primary 'Scanlon, J.C.'
primary 'Longo, J.M.'
primary 'Yelon, W.B.'
_cell_length_a 5.279(1)
_cell_length_b 7.448(1)
_cell_length_c 5.264(1)
_cell_angle_alpha 90.
_cell_angle_beta 90.
_cell_angle_gamma 90.
_cell_volume 206.97
_cell_formula_units_Z 4
_space_group_name_H-M_alt 'P n m a'
_space_group_IT_number 62
loop_
_space_group_symop_id
_space_group_symop_operation_xyz
1 'x+1/2, y, -z+1/2'
2 'x, -y+1/2, z'
3 '-x+1/2, y+1/2, z+1/2'
4 '-x, -y, -z'
5 '-x+1/2, -y, z+1/2'
6 '-x, y+1/2, -z'
7 'x+1/2, -y+1/2, -z+1/2'
8 'x, y, z'
loop_
_atom_type_symbol
_atom_type_oxidation_number
Ca2+ 2
Mn4+ 4
O2- -2
loop_
_atom_site_label
_atom_site_type_symbol
_atom_site_symmetry_multiplicity
_atom_site_Wyckoff_symbol
_atom_site_fract_x
_atom_site_fract_y
_atom_site_fract_z
_atom_site_B_iso_or_equiv
_atom_site_occupancy
Ca1 Ca2+ 4 c 0.03331(7) 0.25 -.00569(8) . 1.
Mn1 Mn4+ 4 b 0 0 0.5 . 1.
O1 O2- 4 c 0.48986(30) 0.25 0.06593(31) . 1.
O2 O2- 8 d 0.28728(19) 0.03358(16) -.28789(18) . 1.
loop_
_atom_site_aniso_label
_atom_site_aniso_type_symbol
_atom_site_aniso_beta_11
_atom_site_aniso_beta_22
_atom_site_aniso_beta_33
_atom_site_aniso_beta_12
_atom_site_aniso_beta_13
_atom_site_aniso_beta_23
Ca1 Ca2+ 0.00388(8) 0.00208(3) 0.00394(6) 0 -.00073(16) 0
Mn1 Mn4+ 0.00130(4) 0.00095(2) 0.00164(4) 0.00001(4) -.00008(11) -.00006(7)
O1 O2- 0.00585(32) 0.00093(12) 0.00460(28) 0 -.00029(52) 0
O2 O2- 0.00294(16) 0.00246(10) 0.00315(15) -.00043(26) -.00162(31) 0.00029(25)
#End of TTdata_35218-ICSD